# LAMMPS data file from: decane.data by ../../MyScripts/rotate_mol.py

4096 atoms
3 atom types
3968 bonds
2 bond types
7680 angles
3 angle types
3 dihedral types
10368 dihedrals

  -0.892   27.706 xlo xhi
  -1.396   27.893 ylo yhi
  -1.396   27.894 zlo zhi


Masses

1 12.011 # CH3
2 12.011 # CH2
3 1.008 # HC

Atoms # full

1 1 1 -0.18 0.00000000 0.25060440 -0.36544424 0 0 0 # CH3
2 1 3 0.06 0.00000000 1.34349168 -0.38116079 0 0 0 # HC
3 1 3 0.06 0.00000000 -0.12850908 -1.39058939 0 0 0 # HC
4 1 3 0.06 -0.89243100 -0.10628250 0.15498661 0 0 0 # HC
5 1 2 -0.12 1.25332230 -0.25060440 0.36544424 0 0 0 # CH2
6 1 3 0.06 1.25332230 -1.34349168 0.38116079 0 0 0 # HC
7 1 3 0.06 1.25332230 0.12850908 1.39058939 0 0 0 # HC
8 1 2 -0.12 2.50664460 0.25060440 -0.36544424 0 0 0 # CH2
9 1 3 0.06 2.50664460 1.34349168 -0.38116079 0 0 0 # HC
10 1 3 0.06 2.50664460 -0.12850908 -1.39058939 0 0 0 # HC
11 1 2 -0.12 3.75996690 -0.25060440 0.36544424 0 0 0 # CH2
12 1 3 0.06 3.75996690 -1.34349168 0.38116079 0 0 0 # HC
13 1 3 0.06 3.75996690 0.12850908 1.39058939 0 0 0 # HC
14 1 2 -0.12 5.01328920 0.25060440 -0.36544424 0 0 0 # CH2
15 1 3 0.06 5.01328920 1.34349168 -0.38116079 0 0 0 # HC
16 1 3 0.06 5.01328920 -0.12850908 -1.39058939 0 0 0 # HC
17 1 2 -0.12 6.26661150 -0.25060440 0.36544424 0 0 0 # CH2
18 1 3 0.06 6.26661150 -1.34349168 0.38116079 0 0 0 # HC
19 1 3 0.06 6.26661150 0.12850908 1.39058939 0 0 0 # HC
20 1 2 -0.12 7.51993380 0.25060440 -0.36544424 0 0 0 # CH2
21 1 3 0.06 7.51993380 1.34349168 -0.38116079 0 0 0 # HC
22 1 3 0.06 7.51993380 -0.12850908 -1.39058939 0 0 0 # HC
23 1 2 -0.12 8.77325610 -0.25060440 0.36544424 0 0 0 # CH2
24 1 3 0.06 8.77325610 -1.34349168 0.38116079 0 0 0 # HC
25 1 3 0.06 8.77325610 0.12850908 1.39058939 0 0 0 # HC
26 1 2 -0.12 10.02657840 0.25060440 -0.36544424 0 0 0 # CH2
27 1 3 0.06 10.02657840 1.34349168 -0.38116079 0 0 0 # HC
28 1 3 0.06 10.02657840 -0.12850908 -1.39058939 0 0 0 # HC
29 1 1 -0.18 11.27990070 -0.25060440 0.36544424 0 0 0 # CH3
30 1 3 0.06 11.27990070 0.12850908 1.39058939 0 0 0 # HC
31 1 3 0.06 11.27990070 -1.34349168 0.38116079 0 0 0 # HC
32 1 3 0.06 12.17233170 0.10628250 -0.15498661 0 0 0 # HC
33 2 1 -0.18 0.00000000 0.44311199 3.49804449 0 0 0 # CH3
34 2 3 0.06 0.00000000 1.07808822 4.38768194 0 0 0 # HC
35 2 3 0.06 0.00000000 1.07021146 2.60283732 0 0 0 # HC
36 2 3 0.06 -0.89243100 -0.18792587 3.50082934 0 0 0 # HC
37 2 2 -0.12 1.25332230 -0.44311199 3.50195551 0 0 0 # CH2
38 2 3 0.06 1.25332230 -1.07808822 2.61231806 0 0 0 # HC
39 2 3 0.06 1.25332230 -1.07021146 4.39716268 0 0 0 # HC
40 2 2 -0.12 2.50664460 0.44311199 3.49804449 0 0 0 # CH2
41 2 3 0.06 2.50664460 1.07808822 4.38768194 0 0 0 # HC
42 2 3 0.06 2.50664460 1.07021146 2.60283732 0 0 0 # HC
43 2 2 -0.12 3.75996690 -0.44311199 3.50195551 0 0 0 # CH2
44 2 3 0.06 3.75996690 -1.07808822 2.61231806 0 0 0 # HC
45 2 3 0.06 3.75996690 -1.07021146 4.39716268 0 0 0 # HC
46 2 2 -0.12 5.01328920 0.44311199 3.49804449 0 0 0 # CH2
47 2 3 0.06 5.01328920 1.07808822 4.38768194 0 0 0 # HC
48 2 3 0.06 5.01328920 1.07021146 2.60283732 0 0 0 # HC
49 2 2 -0.12 6.26661150 -0.44311199 3.50195551 0 0 0 # CH2
50 2 3 0.06 6.26661150 -1.07808822 2.61231806 0 0 0 # HC
51 2 3 0.06 6.26661150 -1.07021146 4.39716268 0 0 0 # HC
52 2 2 -0.12 7.51993380 0.44311199 3.49804449 0 0 0 # CH2
53 2 3 0.06 7.51993380 1.07808822 4.38768194 0 0 0 # HC
54 2 3 0.06 7.51993380 1.07021146 2.60283732 0 0 0 # HC
55 2 2 -0.12 8.77325610 -0.44311199 3.50195551 0 0 0 # CH2
56 2 3 0.06 8.77325610 -1.07808822 2.61231806 0 0 0 # HC
57 2 3 0.06 8.77325610 -1.07021146 4.39716268 0 0 0 # HC
58 2 2 -0.12 10.02657840 0.44311199 3.49804449 0 0 0 # CH2
59 2 3 0.06 10.02657840 1.07808822 4.38768194 0 0 0 # HC
60 2 3 0.06 10.02657840 1.07021146 2.60283732 0 0 0 # HC
61 2 1 -0.18 11.27990070 -0.44311199 3.50195551 0 0 0 # CH3
62 2 3 0.06 11.27990070 -1.07021146 4.39716268 0 0 0 # HC
63 2 3 0.06 11.27990070 -1.07808822 2.61231806 0 0 0 # HC
64 2 3 0.06 12.17233170 0.18792587 3.49917066 0 0 0 # HC
65 3 1 -0.18 0.00000000 0.39717704 6.80352493 0 0 0 # CH3
66 3 3 0.06 0.00000000 1.35849720 7.32363372 0 0 0 # HC
67 3 3 0.06 0.00000000 0.56710024 5.72381398 0 0 0 # HC
68 3 3 0.06 -0.89243100 -0.16844464 7.08332600 0 0 0 # HC
69 3 2 -0.12 1.25332230 -0.39717704 7.19647507 0 0 0 # CH2
70 3 3 0.06 1.25332230 -1.35849720 6.67636628 0 0 0 # HC
71 3 3 0.06 1.25332230 -0.56710024 8.27618602 0 0 0 # HC
72 3 2 -0.12 2.50664460 0.39717704 6.80352493 0 0 0 # CH2
73 3 3 0.06 2.50664460 1.35849720 7.32363372 0 0 0 # HC
74 3 3 0.06 2.50664460 0.56710024 5.72381398 0 0 0 # HC
75 3 2 -0.12 3.75996690 -0.39717704 7.19647507 0 0 0 # CH2
76 3 3 0.06 3.75996690 -1.35849720 6.67636628 0 0 0 # HC
77 3 3 0.06 3.75996690 -0.56710024 8.27618602 0 0 0 # HC
78 3 2 -0.12 5.01328920 0.39717704 6.80352493 0 0 0 # CH2
79 3 3 0.06 5.01328920 1.35849720 7.32363372 0 0 0 # HC
80 3 3 0.06 5.01328920 0.56710024 5.72381398 0 0 0 # HC
81 3 2 -0.12 6.26661150 -0.39717704 7.19647507 0 0 0 # CH2
82 3 3 0.06 6.26661150 -1.35849720 6.67636628 0 0 0 # HC
83 3 3 0.06 6.26661150 -0.56710024 8.27618602 0 0 0 # HC
84 3 2 -0.12 7.51993380 0.39717704 6.80352493 0 0 0 # CH2
85 3 3 0.06 7.51993380 1.35849720 7.32363372 0 0 0 # HC
86 3 3 0.06 7.51993380 0.56710024 5.72381398 0 0 0 # HC
87 3 2 -0.12 8.77325610 -0.39717704 7.19647507 0 0 0 # CH2
88 3 3 0.06 8.77325610 -1.35849720 6.67636628 0 0 0 # HC
89 3 3 0.06 8.77325610 -0.56710024 8.27618602 0 0 0 # HC
90 3 2 -0.12 10.02657840 0.39717704 6.80352493 0 0 0 # CH2
91 3 3 0.06 10.02657840 1.35849720 7.32363372 0 0 0 # HC
92 3 3 0.06 10.02657840 0.56710024 5.72381398 0 0 0 # HC
93 3 1 -0.18 11.27990070 -0.39717704 7.19647507 0 0 0 # CH3
94 3 3 0.06 11.27990070 -0.56710024 8.27618602 0 0 0 # HC
95 3 3 0.06 11.27990070 -1.35849720 6.67636628 0 0 0 # HC
96 3 3 0.06 12.17233170 0.16844464 6.91667400 0 0 0 # HC
97 4 1 -0.18 0.00000000 0.35024981 10.77143530 0 0 0 # CH3
98 4 3 0.06 0.00000000 0.30237472 11.86338658 0 0 0 # HC
99 4 3 0.06 0.00000000 1.39570971 10.45258859 0 0 0 # HC
100 4 3 0.06 -0.89243100 -0.14854259 10.38488302 0 0 0 # HC
101 4 2 -0.12 1.25332230 -0.35024981 10.22856470 0 0 0 # CH2
102 4 3 0.06 1.25332230 -0.30237472 9.13661342 0 0 0 # HC
103 4 3 0.06 1.25332230 -1.39570971 10.54741141 0 0 0 # HC
104 4 2 -0.12 2.50664460 0.35024981 10.77143530 0 0 0 # CH2
105 4 3 0.06 2.50664460 0.30237472 11.86338658 0 0 0 # HC
106 4 3 0.06 2.50664460 1.39570971 10.45258859 0 0 0 # HC
107 4 2 -0.12 3.75996690 -0.35024981 10.22856470 0 0 0 # CH2
108 4 3 0.06 3.75996690 -0.30237472 9.13661342 0 0 0 # HC
109 4 3 0.06 3.75996690 -1.39570971 10.54741141 0 0 0 # HC
110 4 2 -0.12 5.01328920 0.35024981 10.77143530 0 0 0 # CH2
111 4 3 0.06 5.01328920 0.30237472 11.86338658 0 0 0 # HC
112 4 3 0.06 5.01328920 1.39570971 10.45258859 0 0 0 # HC
113 4 2 -0.12 6.26661150 -0.35024981 10.22856470 0 0 0 # CH2
114 4 3 0.06 6.26661150 -0.30237472 9.13661342 0 0 0 # HC
115 4 3 0.06 6.26661150 -1.39570971 10.54741141 0 0 0 # HC
116 4 2 -0.12 7.51993380 0.35024981 10.77143530 0 0 0 # CH2
117 4 3 0.06 7.51993380 0.30237472 11.86338658 0 0 0 # HC
118 4 3 0.06 7.51993380 1.39570971 10.45258859 0 0 0 # HC
119 4 2 -0.12 8.77325610 -0.35024981 10.22856470 0 0 0 # CH2
120 4 3 0.06 8.77325610 -0.30237472 9.13661342 0 0 0 # HC
121 4 3 0.06 8.77325610 -1.39570971 10.54741141 0 0 0 # HC
122 4 2 -0.12 10.02657840 0.35024981 10.77143530 0 0 0 # CH2
123 4 3 0.06 10.02657840 0.30237472 11.86338658 0 0 0 # HC
124 4 3 0.06 10.02657840 1.39570971 10.45258859 0 0 0 # HC
125 4 1 -0.18 11.27990070 -0.35024981 10.22856470 0 0 0 # CH3
126 4 3 0.06 11.27990070 -1.39570971 10.54741141 0 0 0 # HC
127 4 3 0.06 11.27990070 -0.30237472 9.13661342 0 0 0 # HC
128 4 3 0.06 12.17233170 0.14854259 10.61511698 0 0 0 # HC
129 5 1 -0.18 0.00000000 0.43800392 13.93288349 0 0 0 # CH3
130 5 3 0.06 0.00000000 1.19693920 14.71943728 0 0 0 # HC
131 5 3 0.06 0.00000000 0.92659549 12.95516784 0 0 0 # HC
132 5 3 0.06 -0.89243100 -0.18575951 14.02846443 0 0 0 # HC
133 5 2 -0.12 1.25332230 -0.43800392 14.06711651 0 0 0 # CH2
134 5 3 0.06 1.25332230 -1.19693920 13.28056272 0 0 0 # HC
135 5 3 0.06 1.25332230 -0.92659549 15.04483216 0 0 0 # HC
136 5 2 -0.12 2.50664460 0.43800392 13.93288349 0 0 0 # CH2
137 5 3 0.06 2.50664460 1.19693920 14.71943728 0 0 0 # HC
138 5 3 0.06 2.50664460 0.92659549 12.95516784 0 0 0 # HC
139 5 2 -0.12 3.75996690 -0.43800392 14.06711651 0 0 0 # CH2
140 5 3 0.06 3.75996690 -1.19693920 13.28056272 0 0 0 # HC
141 5 3 0.06 3.75996690 -0.92659549 15.04483216 0 0 0 # HC
142 5 2 -0.12 5.01328920 0.43800392 13.93288349 0 0 0 # CH2
143 5 3 0.06 5.01328920 1.19693920 14.71943728 0 0 0 # HC
144 5 3 0.06 5.01328920 0.92659549 12.95516784 0 0 0 # HC
145 5 2 -0.12 6.26661150 -0.43800392 14.06711651 0 0 0 # CH2
146 5 3 0.06 6.26661150 -1.19693920 13.28056272 0 0 0 # HC
147 5 3 0.06 6.26661150 -0.92659549 15.04483216 0 0 0 # HC
148 5 2 -0.12 7.51993380 0.43800392 13.93288349 0 0 0 # CH2
149 5 3 0.06 7.51993380 1.19693920 14.71943728 0 0 0 # HC
150 5 3 0.06 7.51993380 0.92659549 12.95516784 0 0 0 # HC
151 5 2 -0.12 8.77325610 -0.43800392 14.06711651 0 0 0 # CH2
152 5 3 0.06 8.77325610 -1.19693920 13.28056272 0 0 0 # HC
153 5 3 0.06 8.77325610 -0.92659549 15.04483216 0 0 0 # HC
154 5 2 -0.12 10.02657840 0.43800392 13.93288349 0 0 0 # CH2
155 5 3 0.06 10.02657840 1.19693920 14.71943728 0 0 0 # HC
156 5 3 0.06 10.02657840 0.92659549 12.95516784 0 0 0 # HC
157 5 1 -0.18 11.27990070 -0.43800392 14.06711651 0 0 0 # CH3
158 5 3 0.06 11.27990070 -0.92659549 15.04483216 0 0 0 # HC
159 5 3 0.06 11.27990070 -1.19693920 13.28056272 0 0 0 # HC
160 5 3 0.06 12.17233170 0.18575951 13.97153557 0 0 0 # HC
161 6 1 -0.18 0.00000000 0.29597512 17.17022617 0 0 0 # CH3
162 6 3 0.06 0.00000000 1.38163530 17.29668411 0 0 0 # HC
163 6 3 0.06 0.00000000 0.05331408 16.10450330 0 0 0 # HC
164 6 3 0.06 -0.89243100 -0.12552444 17.63985863 0 0 0 # HC
165 6 2 -0.12 1.25332230 -0.29597512 17.82977383 0 0 0 # CH2
166 6 3 0.06 1.25332230 -1.38163530 17.70331589 0 0 0 # HC
167 6 3 0.06 1.25332230 -0.05331408 18.89549670 0 0 0 # HC
168 6 2 -0.12 2.50664460 0.29597512 17.17022617 0 0 0 # CH2
169 6 3 0.06 2.50664460 1.38163530 17.29668411 0 0 0 # HC
170 6 3 0.06 2.50664460 0.05331408 16.10450330 0 0 0 # HC
171 6 2 -0.12 3.75996690 -0.29597512 17.82977383 0 0 0 # CH2
172 6 3 0.06 3.75996690 -1.38163530 17.70331589 0 0 0 # HC
173 6 3 0.06 3.75996690 -0.05331408 18.89549670 0 0 0 # HC
174 6 2 -0.12 5.01328920 0.29597512 17.17022617 0 0 0 # CH2
175 6 3 0.06 5.01328920 1.38163530 17.29668411 0 0 0 # HC
176 6 3 0.06 5.01328920 0.05331408 16.10450330 0 0 0 # HC
177 6 2 -0.12 6.26661150 -0.29597512 17.82977383 0 0 0 # CH2
178 6 3 0.06 6.26661150 -1.38163530 17.70331589 0 0 0 # HC
179 6 3 0.06 6.26661150 -0.05331408 18.89549670 0 0 0 # HC
180 6 2 -0.12 7.51993380 0.29597512 17.17022617 0 0 0 # CH2
181 6 3 0.06 7.51993380 1.38163530 17.29668411 0 0 0 # HC
182 6 3 0.06 7.51993380 0.05331408 16.10450330 0 0 0 # HC
183 6 2 -0.12 8.77325610 -0.29597512 17.82977383 0 0 0 # CH2
184 6 3 0.06 8.77325610 -1.38163530 17.70331589 0 0 0 # HC
185 6 3 0.06 8.77325610 -0.05331408 18.89549670 0 0 0 # HC
186 6 2 -0.12 10.02657840 0.29597512 17.17022617 0 0 0 # CH2
187 6 3 0.06 10.02657840 1.38163530 17.29668411 0 0 0 # HC
188 6 3 0.06 10.02657840 0.05331408 16.10450330 0 0 0 # HC
189 6 1 -0.18 11.27990070 -0.29597512 17.82977383 0 0 0 # CH3
190 6 3 0.06 11.27990070 -0.05331408 18.89549670 0 0 0 # HC
191 6 3 0.06 11.27990070 -1.38163530 17.70331589 0 0 0 # HC
192 6 3 0.06 12.17233170 0.12552444 17.36014137 0 0 0 # HC
193 7 1 -0.18 0.00000000 0.44119522 20.95878304 0 0 0 # CH3
194 7 3 0.06 0.00000000 1.15251385 21.78864774 0 0 0 # HC
195 7 3 0.06 0.00000000 0.98649293 20.01152383 0 0 0 # HC
196 7 3 0.06 -0.89243100 -0.18711296 21.01748030 0 0 0 # HC
197 7 2 -0.12 1.25332230 -0.44119522 21.04121696 0 0 0 # CH2
198 7 3 0.06 1.25332230 -1.15251385 20.21135226 0 0 0 # HC
199 7 3 0.06 1.25332230 -0.98649293 21.98847617 0 0 0 # HC
200 7 2 -0.12 2.50664460 0.44119522 20.95878304 0 0 0 # CH2
201 7 3 0.06 2.50664460 1.15251385 21.78864774 0 0 0 # HC
202 7 3 0.06 2.50664460 0.98649293 20.01152383 0 0 0 # HC
203 7 2 -0.12 3.75996690 -0.44119522 21.04121696 0 0 0 # CH2
204 7 3 0.06 3.75996690 -1.15251385 20.21135226 0 0 0 # HC
205 7 3 0.06 3.75996690 -0.98649293 21.98847617 0 0 0 # HC
206 7 2 -0.12 5.01328920 0.44119522 20.95878304 0 0 0 # CH2
207 7 3 0.06 5.01328920 1.15251385 21.78864774 0 0 0 # HC
208 7 3 0.06 5.01328920 0.98649293 20.01152383 0 0 0 # HC
209 7 2 -0.12 6.26661150 -0.44119522 21.04121696 0 0 0 # CH2
210 7 3 0.06 6.26661150 -1.15251385 20.21135226 0 0 0 # HC
211 7 3 0.06 6.26661150 -0.98649293 21.98847617 0 0 0 # HC
212 7 2 -0.12 7.51993380 0.44119522 20.95878304 0 0 0 # CH2
213 7 3 0.06 7.51993380 1.15251385 21.78864774 0 0 0 # HC
214 7 3 0.06 7.51993380 0.98649293 20.01152383 0 0 0 # HC
215 7 2 -0.12 8.77325610 -0.44119522 21.04121696 0 0 0 # CH2
216 7 3 0.06 8.77325610 -1.15251385 20.21135226 0 0 0 # HC
217 7 3 0.06 8.77325610 -0.98649293 21.98847617 0 0 0 # HC
218 7 2 -0.12 10.02657840 0.44119522 20.95878304 0 0 0 # CH2
219 7 3 0.06 10.02657840 1.15251385 21.78864774 0 0 0 # HC
220 7 3 0.06 10.02657840 0.98649293 20.01152383 0 0 0 # HC
221 7 1 -0.18 11.27990070 -0.44119522 21.04121696 0 0 0 # CH3
222 7 3 0.06 11.27990070 -0.98649293 21.98847617 0 0 0 # HC
223 7 3 0.06 11.27990070 -1.15251385 20.21135226 0 0 0 # HC
224 7 3 0.06 12.17233170 0.18711296 20.98251970 0 0 0 # HC
225 8 1 -0.18 0.00000000 0.39064378 24.29083621 0 0 0 # CH3
226 8 3 0.06 0.00000000 1.36821483 24.77971704 0 0 0 # HC
227 8 3 0.06 0.00000000 0.52570802 23.20621311 0 0 0 # HC
228 8 3 0.06 -0.89243100 -0.16567386 24.58870734 0 0 0 # HC
229 8 2 -0.12 1.25332230 -0.39064378 24.70916379 0 0 0 # CH2
230 8 3 0.06 1.25332230 -1.36821483 24.22028296 0 0 0 # HC
231 8 3 0.06 1.25332230 -0.52570802 25.79378689 0 0 0 # HC
232 8 2 -0.12 2.50664460 0.39064378 24.29083621 0 0 0 # CH2
233 8 3 0.06 2.50664460 1.36821483 24.77971704 0 0 0 # HC
234 8 3 0.06 2.50664460 0.52570802 23.20621311 0 0 0 # HC
235 8 2 -0.12 3.75996690 -0.39064378 24.70916379 0 0 0 # CH2
236 8 3 0.06 3.75996690 -1.36821483 24.22028296 0 0 0 # HC
237 8 3 0.06 3.75996690 -0.52570802 25.79378689 0 0 0 # HC
238 8 2 -0.12 5.01328920 0.39064378 24.29083621 0 0 0 # CH2
239 8 3 0.06 5.01328920 1.36821483 24.77971704 0 0 0 # HC
240 8 3 0.06 5.01328920 0.52570802 23.20621311 0 0 0 # HC
241 8 2 -0.12 6.26661150 -0.39064378 24.70916379 0 0 0 # CH2
242 8 3 0.06 6.26661150 -1.36821483 24.22028296 0 0 0 # HC
243 8 3 0.06 6.26661150 -0.52570802 25.79378689 0 0 0 # HC
244 8 2 -0.12 7.51993380 0.39064378 24.29083621 0 0 0 # CH2
245 8 3 0.06 7.51993380 1.36821483 24.77971704 0 0 0 # HC
246 8 3 0.06 7.51993380 0.52570802 23.20621311 0 0 0 # HC
247 8 2 -0.12 8.77325610 -0.39064378 24.70916379 0 0 0 # CH2
248 8 3 0.06 8.77325610 -1.36821483 24.22028296 0 0 0 # HC
249 8 3 0.06 8.77325610 -0.52570802 25.79378689 0 0 0 # HC
250 8 2 -0.12 10.02657840 0.39064378 24.29083621 0 0 0 # CH2
251 8 3 0.06 10.02657840 1.36821483 24.77971704 0 0 0 # HC
252 8 3 0.06 10.02657840 0.52570802 23.20621311 0 0 0 # HC
253 8 1 -0.18 11.27990070 -0.39064378 24.70916379 0 0 0 # CH3
254 8 3 0.06 11.27990070 -0.52570802 25.79378689 0 0 0 # HC
255 8 3 0.06 11.27990070 -1.36821483 24.22028296 0 0 0 # HC
256 8 3 0.06 12.17233170 0.16567386 24.41129266 0 0 0 # HC
257 9 1 -0.18 0.00000000 3.81177506 -0.31487833 0 0 0 # CH3
258 9 3 0.06 0.00000000 4.88993664 -0.13538675 0 0 0 # HC
259 9 3 0.06 0.00000000 3.62161414 -1.39120934 0 0 0 # HC
260 9 3 0.06 -0.89243100 3.36777473 0.13354138 0 0 0 # HC
261 9 2 -0.12 1.25332230 3.18822494 0.31487833 0 0 0 # CH2
262 9 3 0.06 1.25332230 2.11006336 0.13538675 0 0 0 # HC
263 9 3 0.06 1.25332230 3.37838586 1.39120934 0 0 0 # HC
264 9 2 -0.12 2.50664460 3.81177506 -0.31487833 0 0 0 # CH2
265 9 3 0.06 2.50664460 4.88993664 -0.13538675 0 0 0 # HC
266 9 3 0.06 2.50664460 3.62161414 -1.39120934 0 0 0 # HC
267 9 2 -0.12 3.75996690 3.18822494 0.31487833 0 0 0 # CH2
268 9 3 0.06 3.75996690 2.11006336 0.13538675 0 0 0 # HC
269 9 3 0.06 3.75996690 3.37838586 1.39120934 0 0 0 # HC
270 9 2 -0.12 5.01328920 3.81177506 -0.31487833 0 0 0 # CH2
271 9 3 0.06 5.01328920 4.88993664 -0.13538675 0 0 0 # HC
272 9 3 0.06 5.01328920 3.62161414 -1.39120934 0 0 0 # HC
273 9 2 -0.12 6.26661150 3.18822494 0.31487833 0 0 0 # CH2
274 9 3 0.06 6.26661150 2.11006336 0.13538675 0 0 0 # HC
275 9 3 0.06 6.26661150 3.37838586 1.39120934 0 0 0 # HC
276 9 2 -0.12 7.51993380 3.81177506 -0.31487833 0 0 0 # CH2
277 9 3 0.06 7.51993380 4.88993664 -0.13538675 0 0 0 # HC
278 9 3 0.06 7.51993380 3.62161414 -1.39120934 0 0 0 # HC
279 9 2 -0.12 8.77325610 3.18822494 0.31487833 0 0 0 # CH2
280 9 3 0.06 8.77325610 2.11006336 0.13538675 0 0 0 # HC
281 9 3 0.06 8.77325610 3.37838586 1.39120934 0 0 0 # HC
282 9 2 -0.12 10.02657840 3.81177506 -0.31487833 0 0 0 # CH2
283 9 3 0.06 10.02657840 4.88993664 -0.13538675 0 0 0 # HC
284 9 3 0.06 10.02657840 3.62161414 -1.39120934 0 0 0 # HC
285 9 1 -0.18 11.27990070 3.18822494 0.31487833 0 0 0 # CH3
286 9 3 0.06 11.27990070 3.37838586 1.39120934 0 0 0 # HC
287 9 3 0.06 11.27990070 2.11006336 0.13538675 0 0 0 # HC
288 9 3 0.06 12.17233170 3.63222527 -0.13354138 0 0 0 # HC
289 10 1 -0.18 0.00000000 3.94306012 3.49294427 0 0 0 # CH3
290 10 3 0.06 0.00000000 4.58823427 4.37521404 0 0 0 # HC
291 10 3 0.06 0.00000000 4.55981397 2.59057832 0 0 0 # HC
292 10 3 0.06 -0.89243100 3.31209613 3.50299237 0 0 0 # HC
293 10 2 -0.12 1.25332230 3.05693988 3.50705573 0 0 0 # CH2
294 10 3 0.06 1.25332230 2.41176573 2.62478596 0 0 0 # HC
295 10 3 0.06 1.25332230 2.44018603 4.40942168 0 0 0 # HC
296 10 2 -0.12 2.50664460 3.94306012 3.49294427 0 0 0 # CH2
297 10 3 0.06 2.50664460 4.58823427 4.37521404 0 0 0 # HC
298 10 3 0.06 2.50664460 4.55981397 2.59057832 0 0 0 # HC
299 10 2 -0.12 3.75996690 3.05693988 3.50705573 0 0 0 # CH2
300 10 3 0.06 3.75996690 2.41176573 2.62478596 0 0 0 # HC
301 10 3 0.06 3.75996690 2.44018603 4.40942168 0 0 0 # HC
302 10 2 -0.12 5.01328920 3.94306012 3.49294427 0 0 0 # CH2
303 10 3 0.06 5.01328920 4.58823427 4.37521404 0 0 0 # HC
304 10 3 0.06 5.01328920 4.55981397 2.59057832 0 0 0 # HC
305 10 2 -0.12 6.26661150 3.05693988 3.50705573 0 0 0 # CH2
306 10 3 0.06 6.26661150 2.41176573 2.62478596 0 0 0 # HC
307 10 3 0.06 6.26661150 2.44018603 4.40942168 0 0 0 # HC
308 10 2 -0.12 7.51993380 3.94306012 3.49294427 0 0 0 # CH2
309 10 3 0.06 7.51993380 4.58823427 4.37521404 0 0 0 # HC
310 10 3 0.06 7.51993380 4.55981397 2.59057832 0 0 0 # HC
311 10 2 -0.12 8.77325610 3.05693988 3.50705573 0 0 0 # CH2
312 10 3 0.06 8.77325610 2.41176573 2.62478596 0 0 0 # HC
313 10 3 0.06 8.77325610 2.44018603 4.40942168 0 0 0 # HC
314 10 2 -0.12 10.02657840 3.94306012 3.49294427 0 0 0 # CH2
315 10 3 0.06 10.02657840 4.58823427 4.37521404 0 0 0 # HC
316 10 3 0.06 10.02657840 4.55981397 2.59057832 0 0 0 # HC
317 10 1 -0.18 11.27990070 3.05693988 3.50705573 0 0 0 # CH3
318 10 3 0.06 11.27990070 2.44018603 4.40942168 0 0 0 # HC
319 10 3 0.06 11.27990070 2.41176573 2.62478596 0 0 0 # HC
320 10 3 0.06 12.17233170 3.68790387 3.49700763 0 0 0 # HC
321 11 1 -0.18 0.00000000 3.91177545 6.83631421 0 0 0 # CH3
322 11 3 0.06 0.00000000 4.82784803 7.43251941 0 0 0 # HC
323 11 3 0.06 0.00000000 4.16852555 5.77389763 0 0 0 # HC
324 11 3 0.06 -0.89243100 3.32536410 7.06941991 0 0 0 # HC
325 11 2 -0.12 1.25332230 3.08822455 7.16368579 0 0 0 # CH2
326 11 3 0.06 1.25332230 2.17215197 6.56748059 0 0 0 # HC
327 11 3 0.06 1.25332230 2.83147445 8.22610237 0 0 0 # HC
328 11 2 -0.12 2.50664460 3.91177545 6.83631421 0 0 0 # CH2
329 11 3 0.06 2.50664460 4.82784803 7.43251941 0 0 0 # HC
330 11 3 0.06 2.50664460 4.16852555 5.77389763 0 0 0 # HC
331 11 2 -0.12 3.75996690 3.08822455 7.16368579 0 0 0 # CH2
332 11 3 0.06 3.75996690 2.17215197 6.56748059 0 0 0 # HC
333 11 3 0.06 3.75996690 2.83147445 8.22610237 0 0 0 # HC
334 11 2 -0.12 5.01328920 3.91177545 6.83631421 0 0 0 # CH2
335 11 3 0.06 5.01328920 4.82784803 7.43251941 0 0 0 # HC
336 11 3 0.06 5.01328920 4.16852555 5.77389763 0 0 0 # HC
337 11 2 -0.12 6.26661150 3.08822455 7.16368579 0 0 0 # CH2
338 11 3 0.06 6.26661150 2.17215197 6.56748059 0 0 0 # HC
339 11 3 0.06 6.26661150 2.83147445 8.22610237 0 0 0 # HC
340 11 2 -0.12 7.51993380 3.91177545 6.83631421 0 0 0 # CH2
341 11 3 0.06 7.51993380 4.82784803 7.43251941 0 0 0 # HC
342 11 3 0.06 7.51993380 4.16852555 5.77389763 0 0 0 # HC
343 11 2 -0.12 8.77325610 3.08822455 7.16368579 0 0 0 # CH2
344 11 3 0.06 8.77325610 2.17215197 6.56748059 0 0 0 # HC
345 11 3 0.06 8.77325610 2.83147445 8.22610237 0 0 0 # HC
346 11 2 -0.12 10.02657840 3.91177545 6.83631421 0 0 0 # CH2
347 11 3 0.06 10.02657840 4.82784803 7.43251941 0 0 0 # HC
348 11 3 0.06 10.02657840 4.16852555 5.77389763 0 0 0 # HC
349 11 1 -0.18 11.27990070 3.08822455 7.16368579 0 0 0 # CH3
350 11 3 0.06 11.27990070 2.83147445 8.22610237 0 0 0 # HC
351 11 3 0.06 11.27990070 2.17215197 6.56748059 0 0 0 # HC
352 11 3 0.06 12.17233170 3.67463590 6.93058009 0 0 0 # HC
353 12 1 -0.18 0.00000000 3.93579752 10.41979663 0 0 0 # CH3
354 12 3 0.06 0.00000000 4.71794744 11.18326970 0 0 0 # HC
355 12 3 0.06 0.00000000 4.39489017 9.42788759 0 0 0 # HC
356 12 3 0.06 -0.89243100 3.31517623 10.53401462 0 0 0 # HC
357 12 2 -0.12 1.25332230 3.06420248 10.58020337 0 0 0 # CH2
358 12 3 0.06 1.25332230 2.28205256 9.81673030 0 0 0 # HC
359 12 3 0.06 1.25332230 2.60510983 11.57211241 0 0 0 # HC
360 12 2 -0.12 2.50664460 3.93579752 10.41979663 0 0 0 # CH2
361 12 3 0.06 2.50664460 4.71794744 11.18326970 0 0 0 # HC
362 12 3 0.06 2.50664460 4.39489017 9.42788759 0 0 0 # HC
363 12 2 -0.12 3.75996690 3.06420248 10.58020337 0 0 0 # CH2
364 12 3 0.06 3.75996690 2.28205256 9.81673030 0 0 0 # HC
365 12 3 0.06 3.75996690 2.60510983 11.57211241 0 0 0 # HC
366 12 2 -0.12 5.01328920 3.93579752 10.41979663 0 0 0 # CH2
367 12 3 0.06 5.01328920 4.71794744 11.18326970 0 0 0 # HC
368 12 3 0.06 5.01328920 4.39489017 9.42788759 0 0 0 # HC
369 12 2 -0.12 6.26661150 3.06420248 10.58020337 0 0 0 # CH2
370 12 3 0.06 6.26661150 2.28205256 9.81673030 0 0 0 # HC
371 12 3 0.06 6.26661150 2.60510983 11.57211241 0 0 0 # HC
372 12 2 -0.12 7.51993380 3.93579752 10.41979663 0 0 0 # CH2
373 12 3 0.06 7.51993380 4.71794744 11.18326970 0 0 0 # HC
374 12 3 0.06 7.51993380 4.39489017 9.42788759 0 0 0 # HC
375 12 2 -0.12 8.77325610 3.06420248 10.58020337 0 0 0 # CH2
376 12 3 0.06 8.77325610 2.28205256 9.81673030 0 0 0 # HC
377 12 3 0.06 8.77325610 2.60510983 11.57211241 0 0 0 # HC
378 12 2 -0.12 10.02657840 3.93579752 10.41979663 0 0 0 # CH2
379 12 3 0.06 10.02657840 4.71794744 11.18326970 0 0 0 # HC
380 12 3 0.06 10.02657840 4.39489017 9.42788759 0 0 0 # HC
381 12 1 -0.18 11.27990070 3.06420248 10.58020337 0 0 0 # CH3
382 12 3 0.06 11.27990070 2.60510983 11.57211241 0 0 0 # HC
383 12 3 0.06 11.27990070 2.28205256 9.81673030 0 0 0 # HC
384 12 3 0.06 12.17233170 3.68482377 10.46598538 0 0 0 # HC
385 13 1 -0.18 0.00000000 3.94296213 13.98831220 0 0 0 # CH3
386 13 3 0.06 0.00000000 4.59732568 14.86378805 0 0 0 # HC
387 13 3 0.06 0.00000000 4.55024749 13.07954704 0 0 0 # HC
388 13 3 0.06 -0.89243100 3.31213768 14.00495685 0 0 0 # HC
389 13 2 -0.12 1.25332230 3.05703787 14.01168780 0 0 0 # CH2
390 13 3 0.06 1.25332230 2.40267432 13.13621195 0 0 0 # HC
391 13 3 0.06 1.25332230 2.44975251 14.92045296 0 0 0 # HC
392 13 2 -0.12 2.50664460 3.94296213 13.98831220 0 0 0 # CH2
393 13 3 0.06 2.50664460 4.59732568 14.86378805 0 0 0 # HC
394 13 3 0.06 2.50664460 4.55024749 13.07954704 0 0 0 # HC
395 13 2 -0.12 3.75996690 3.05703787 14.01168780 0 0 0 # CH2
396 13 3 0.06 3.75996690 2.40267432 13.13621195 0 0 0 # HC
397 13 3 0.06 3.75996690 2.44975251 14.92045296 0 0 0 # HC
398 13 2 -0.12 5.01328920 3.94296213 13.98831220 0 0 0 # CH2
399 13 3 0.06 5.01328920 4.59732568 14.86378805 0 0 0 # HC
400 13 3 0.06 5.01328920 4.55024749 13.07954704 0 0 0 # HC
401 13 2 -0.12 6.26661150 3.05703787 14.01168780 0 0 0 # CH2
402 13 3 0.06 6.26661150 2.40267432 13.13621195 0 0 0 # HC
403 13 3 0.06 6.26661150 2.44975251 14.92045296 0 0 0 # HC
404 13 2 -0.12 7.51993380 3.94296213 13.98831220 0 0 0 # CH2
405 13 3 0.06 7.51993380 4.59732568 14.86378805 0 0 0 # HC
406 13 3 0.06 7.51993380 4.55024749 13.07954704 0 0 0 # HC
407 13 2 -0.12 8.77325610 3.05703787 14.01168780 0 0 0 # CH2
408 13 3 0.06 8.77325610 2.40267432 13.13621195 0 0 0 # HC
409 13 3 0.06 8.77325610 2.44975251 14.92045296 0 0 0 # HC
410 13 2 -0.12 10.02657840 3.94296213 13.98831220 0 0 0 # CH2
411 13 3 0.06 10.02657840 4.59732568 14.86378805 0 0 0 # HC
412 13 3 0.06 10.02657840 4.55024749 13.07954704 0 0 0 # HC
413 13 1 -0.18 11.27990070 3.05703787 14.01168780 0 0 0 # CH3
414 13 3 0.06 11.27990070 2.44975251 14.92045296 0 0 0 # HC
415 13 3 0.06 11.27990070 2.40267432 13.13621195 0 0 0 # HC
416 13 3 0.06 12.17233170 3.68786232 13.99504315 0 0 0 # HC
417 14 1 -0.18 0.00000000 3.90204703 17.68630685 0 0 0 # CH3
418 14 3 0.06 0.00000000 4.09938429 18.76134528 0 0 0 # HC
419 14 3 0.06 0.00000000 4.84982388 17.14190934 0 0 0 # HC
420 14 3 0.06 -0.89243100 3.32948997 17.42098639 0 0 0 # HC
421 14 2 -0.12 1.25332230 3.09795297 17.31369315 0 0 0 # CH2
422 14 3 0.06 1.25332230 2.90061571 16.23865472 0 0 0 # HC
423 14 3 0.06 1.25332230 2.15017612 17.85809066 0 0 0 # HC
424 14 2 -0.12 2.50664460 3.90204703 17.68630685 0 0 0 # CH2
425 14 3 0.06 2.50664460 4.09938429 18.76134528 0 0 0 # HC
426 14 3 0.06 2.50664460 4.84982388 17.14190934 0 0 0 # HC
427 14 2 -0.12 3.75996690 3.09795297 17.31369315 0 0 0 # CH2
428 14 3 0.06 3.75996690 2.90061571 16.23865472 0 0 0 # HC
429 14 3 0.06 3.75996690 2.15017612 17.85809066 0 0 0 # HC
430 14 2 -0.12 5.01328920 3.90204703 17.68630685 0 0 0 # CH2
431 14 3 0.06 5.01328920 4.09938429 18.76134528 0 0 0 # HC
432 14 3 0.06 5.01328920 4.84982388 17.14190934 0 0 0 # HC
433 14 2 -0.12 6.26661150 3.09795297 17.31369315 0 0 0 # CH2
434 14 3 0.06 6.26661150 2.90061571 16.23865472 0 0 0 # HC
435 14 3 0.06 6.26661150 2.15017612 17.85809066 0 0 0 # HC
436 14 2 -0.12 7.51993380 3.90204703 17.68630685 0 0 0 # CH2
437 14 3 0.06 7.51993380 4.09938429 18.76134528 0 0 0 # HC
438 14 3 0.06 7.51993380 4.84982388 17.14190934 0 0 0 # HC
439 14 2 -0.12 8.77325610 3.09795297 17.31369315 0 0 0 # CH2
440 14 3 0.06 8.77325610 2.90061571 16.23865472 0 0 0 # HC
441 14 3 0.06 8.77325610 2.15017612 17.85809066 0 0 0 # HC
442 14 2 -0.12 10.02657840 3.90204703 17.68630685 0 0 0 # CH2
443 14 3 0.06 10.02657840 4.09938429 18.76134528 0 0 0 # HC
444 14 3 0.06 10.02657840 4.84982388 17.14190934 0 0 0 # HC
445 14 1 -0.18 11.27990070 3.09795297 17.31369315 0 0 0 # CH3
446 14 3 0.06 11.27990070 2.15017612 17.85809066 0 0 0 # HC
447 14 3 0.06 11.27990070 2.90061571 16.23865472 0 0 0 # HC
448 14 3 0.06 12.17233170 3.67051003 17.57901361 0 0 0 # HC
449 15 1 -0.18 0.00000000 3.94247459 20.97616113 0 0 0 # CH3
450 15 3 0.06 0.00000000 4.62061593 21.83335070 0 0 0 # HC
451 15 3 0.06 0.00000000 4.52459353 20.05107349 0 0 0 # HC
452 15 3 0.06 -0.89243100 3.31234445 21.01011017 0 0 0 # HC
453 15 2 -0.12 1.25332230 3.05752541 21.02383887 0 0 0 # CH2
454 15 3 0.06 1.25332230 2.37938407 20.16664930 0 0 0 # HC
455 15 3 0.06 1.25332230 2.47540647 21.94892651 0 0 0 # HC
456 15 2 -0.12 2.50664460 3.94247459 20.97616113 0 0 0 # CH2
457 15 3 0.06 2.50664460 4.62061593 21.83335070 0 0 0 # HC
458 15 3 0.06 2.50664460 4.52459353 20.05107349 0 0 0 # HC
459 15 2 -0.12 3.75996690 3.05752541 21.02383887 0 0 0 # CH2
460 15 3 0.06 3.75996690 2.37938407 20.16664930 0 0 0 # HC
461 15 3 0.06 3.75996690 2.47540647 21.94892651 0 0 0 # HC
462 15 2 -0.12 5.01328920 3.94247459 20.97616113 0 0 0 # CH2
463 15 3 0.06 5.01328920 4.62061593 21.83335070 0 0 0 # HC
464 15 3 0.06 5.01328920 4.52459353 20.05107349 0 0 0 # HC
465 15 2 -0.12 6.26661150 3.05752541 21.02383887 0 0 0 # CH2
466 15 3 0.06 6.26661150 2.37938407 20.16664930 0 0 0 # HC
467 15 3 0.06 6.26661150 2.47540647 21.94892651 0 0 0 # HC
468 15 2 -0.12 7.51993380 3.94247459 20.97616113 0 0 0 # CH2
469 15 3 0.06 7.51993380 4.62061593 21.83335070 0 0 0 # HC
470 15 3 0.06 7.51993380 4.52459353 20.05107349 0 0 0 # HC
471 15 2 -0.12 8.77325610 3.05752541 21.02383887 0 0 0 # CH2
472 15 3 0.06 8.77325610 2.37938407 20.16664930 0 0 0 # HC
473 15 3 0.06 8.77325610 2.47540647 21.94892651 0 0 0 # HC
474 15 2 -0.12 10.02657840 3.94247459 20.97616113 0 0 0 # CH2
475 15 3 0.06 10.02657840 4.62061593 21.83335070 0 0 0 # HC
476 15 3 0.06 10.02657840 4.52459353 20.05107349 0 0 0 # HC
477 15 1 -0.18 11.27990070 3.05752541 21.02383887 0 0 0 # CH3
478 15 3 0.06 11.27990070 2.47540647 21.94892651 0 0 0 # HC
479 15 3 0.06 11.27990070 2.37938407 20.16664930 0 0 0 # HC
480 15 3 0.06 12.17233170 3.68765555 20.98988983 0 0 0 # HC
481 16 1 -0.18 0.00000000 3.91218437 24.33734670 0 0 0 # CH3
482 16 3 0.06 0.00000000 4.82675991 24.93584583 0 0 0 # HC
483 16 3 0.06 0.00000000 4.17159624 23.27557690 0 0 0 # HC
484 16 3 0.06 -0.89243100 3.32519067 24.56898203 0 0 0 # HC
485 16 2 -0.12 1.25332230 3.08781563 24.66265330 0 0 0 # CH2
486 16 3 0.06 1.25332230 2.17324009 24.06415417 0 0 0 # HC
487 16 3 0.06 1.25332230 2.82840376 25.72442310 0 0 0 # HC
488 16 2 -0.12 2.50664460 3.91218437 24.33734670 0 0 0 # CH2
489 16 3 0.06 2.50664460 4.82675991 24.93584583 0 0 0 # HC
490 16 3 0.06 2.50664460 4.17159624 23.27557690 0 0 0 # HC
491 16 2 -0.12 3.75996690 3.08781563 24.66265330 0 0 0 # CH2
492 16 3 0.06 3.75996690 2.17324009 24.06415417 0 0 0 # HC
493 16 3 0.06 3.75996690 2.82840376 25.72442310 0 0 0 # HC
494 16 2 -0.12 5.01328920 3.91218437 24.33734670 0 0 0 # CH2
495 16 3 0.06 5.01328920 4.82675991 24.93584583 0 0 0 # HC
496 16 3 0.06 5.01328920 4.17159624 23.27557690 0 0 0 # HC
497 16 2 -0.12 6.26661150 3.08781563 24.66265330 0 0 0 # CH2
498 16 3 0.06 6.26661150 2.17324009 24.06415417 0 0 0 # HC
499 16 3 0.06 6.26661150 2.82840376 25.72442310 0 0 0 # HC
500 16 2 -0.12 7.51993380 3.91218437 24.33734670 0 0 0 # CH2
501 16 3 0.06 7.51993380 4.82675991 24.93584583 0 0 0 # HC
502 16 3 0.06 7.51993380 4.17159624 23.27557690 0 0 0 # HC
503 16 2 -0.12 8.77325610 3.08781563 24.66265330 0 0 0 # CH2